VARIABLES = "X","Y","RHO","RHOU","RHOV","E"
ZONE ZONETYPE=FEQUADRILATERAL N=21020 E=20784 DATAPACKING=BLOCK
VARLOCATION = (1=NODAL,2=NODAL,3=CELLCENTERED,4=CELLCENTERED,5=CELLCENTERED,6=CELLCENTERED)
0.999013
0.996057
0.991144
0.984292
0.975528
0.964888
0.952414
0.938153
0.922164
0.904509
0.885257
0.864484
0.842274
0.818712
0.793893
0.767913
0.740877
0.712890
0.684062
0.654509
0.624345
0.593691
0.562667
0.531395
0.500000
0.468605
0.437333
0.406309
0.375655
0.345492
0.315938
0.287110
0.259123
0.232087
0.206107
0.181288
0.157726
0.135516
0.114743
0.095492
0.077836
0.061847
0.047586
0.035112
0.024472
0.015708
0.008856
0.003943
0.000987
0.000000
0.000987
0.003943
0.008856
0.015708
0.024472
0.035112
0.047586
0.061847
0.077836
0.095492
0.114743
0.135516
0.157726
0.181288
0.206107
0.232087
0.259123
0.287110
0.315938
0.345492
0.375655
0.406309
0.437333
0.468605
0.500000
0.531395
0.562667
0.593691
0.624345
0.654509
0.684062
0.712890
0.740877
0.767913
0.793893
0.818712
0.842274
0.864484
0.885257
0.904509
0.922164
0.938153
0.952414
0.964888
0.975528
0.984292
0.991144
0.996057
0.999013
1.000000
46.984630
38.302220
25.000000
8.682409
-8.682409
-25.000000
-38.302220
-46.984630
-50.000000
-46.984630
-38.302220
-25.000000
-8.682409
8.682409
25.000000
38.302220
46.984630
50.000000
0.015173
0.066024
0.217920
0.932329
0.025076
0.994324
0.301549
0.932329
0.361326
0.999715
0.392066
0.856122
0.423213
0.454641
0.244837
0.486227
0.192110
0.517846
0.144227
0.549375
0.101970
0.580689
0.001019
0.611667
0.036970
0.672131
0.083169
0.729821
0.167512
0.783834
0.217920
0.833322
0.877504
0.988718
0.915683
0.971727
0.947256
0.272751
0.997973
0.981177
0.122350
0.642188
0.757342
-0.005255
0.007193
0.701380
-0.005255
0.960405
0.025076
0.988718
0.272751
0.101970
0.997973
0.192110
0.144227
0.611667
0.244837
0.729821
0.672131
0.833322
0.783834
0.915683
0.877504
0.971727
0.947256
0.994324
0.981177
0.999715
0.897384
0.960405
0.809194
0.856122
0.701380
0.757342
0.580689
0.642188
0.517846
0.549375
0.454641
0.486227
0.392066
0.423213
0.331113
0.361326
0.015173
0.301549
-0.003185
-0.003185
0.001019
0.897384
0.050604
0.036970
0.083169
0.066024
0.167512
0.122350
0.007193
0.050604
0.809194
0.331113
0.330867
0.995065
0.937170
0.096120
0.067633
-0.003920
0.050968
0.003028
0.814481
0.920698
0.988957
0.188596
0.096120
-0.012830
0.011778
-0.008942
0.706193
0.393010
0.456656
0.520794
0.584414
0.646533
0.023197
0.706193
0.762467
0.163365
0.814481
0.215056
0.861417
0.902532
0.271309
0.980834
0.988957
0.127877
-0.008942
-0.011891
0.958793
0.970763
0.964778
0.151071
0.242632
0.882745
0.980834
0.944974
0.995065
0.850378
0.762467
0.584414
0.646533
0.520794
0.456656
0.393010
0.330867
0.011778
0.285934
-0.011891
0.036150
0.023197
0.067633
0.127877
-0.003920
0.003028
0.036150
0.050968
0.999032
1.000943
0.208547
1.000943
0.999434
-0.022725
0.989049
0.893141
0.993508
0.999032
-0.021582
0.024531
0.999434
-0.012410
-0.005768
0.160979
0.130950
-0.022725
-0.017971
0.360811
0.425916
0.491877
0.557634
0.010957
0.622162
0.684479
0.743623
0.181034
0.798681
0.848790
0.931004
0.958686
0.237424
0.298090
0.069714
0.100580
0.135779
-0.021582
0.973725
0.982566
0.965593
0.943793
0.912926
0.877722
0.843144
0.798681
0.743623
0.684479
0.622162
0.557634
0.491877
0.425916
0.360811
0.305777
0.259549
0.004025
0.069714
0.047570
0.100580
-0.017971
-0.012410
-0.005768
0.039371
1.000934
1.000934
1.000073
1.000073
-0.021222
0.891577
-0.035604
0.114588
0.169035
-0.036503
-0.036482
-0.029591
1.002306
1.005396
-0.036503
0.301962
0.221081
0.391243
0.460780
0.530466
0.599159
0.665795
0.729338
0.788780
0.843168
0.933077
0.965098
0.194818
0.258701
0.323778
0.141066
0.063833
0.098272
-0.035604
0.987453
0.996819
1.003428
0.992362
0.974656
0.949034
0.898041
0.840040
0.788780
0.729338
0.665795
0.599159
0.530466
0.460780
0.391243
0.063833
-0.005035
0.025418
-0.027028
-0.032154
-0.017214
0.005373
0.031334
1.000697
1.003110
1.002547
1.000697
-0.050654
0.138184
0.007753
0.423157
-0.056276
-0.056053
-0.056053
1.002547
1.010729
-0.055534
-0.052267
0.169982
0.461431
0.612423
0.753498
0.848393
0.903104
0.948947
0.984133
0.203315
0.312896
0.068446
-0.055111
1.008084
1.017487
1.012643
0.995482
0.958279
0.906722
0.815620
0.684751
0.537602
0.333655
0.246894
0.083044
-0.021129
-0.042481
-0.049297
-0.036019
-0.015546
0.010920
-0.057833
1.002645
-0.081001
1.002645
1.003871
0.126545
1.018526
0.158611
0.316523
1.011270
1.003871
1.004354
0.043233
-0.084007
1.010409
-0.081916
-0.081916
0.549025
0.716609
0.848264
0.924813
0.984108
1.021847
0.230983
0.375258
-0.086507
-0.084151
1.037224
1.022788
1.043132
1.028755
0.992139
0.914043
0.794665
0.634538
0.484704
0.071959
-0.073990
-0.086082
-0.082463
-0.072005
-0.055368
-0.011095
1.007049
-0.010028
1.006421
1.021426
1.017207
-0.130952
-0.112947
-0.132965
1.006429
1.056097
0.098940
1.042169
0.582651
-0.122258
-0.128219
0.006119
1.006421
1.004979
1.004979
0.670797
0.850840
1.005535
1.077251
0.268321
0.457468
-0.121751
1.094689
1.051223
1.095990
1.083504
1.041136
0.936600
0.773033
0.375441
0.186638
0.026016
-0.135210
-0.135523
-0.130335
-0.108097
-0.071142
-0.197890
1.045309
1.019584
1.007356
1.033057
0.084268
0.748689
-0.048032
-0.209331
1.032271
1.025888
1.008898
-0.075781
-0.178545
-0.200065
-0.107780
1.008898
0.850610
1.068460
1.093685
0.588420
0.325841
-0.179825
-0.164512
1.175015
1.091387
1.174006
1.174598
1.108609
0.972701
0.468100
0.212546
-0.009620
-0.159050
-0.214662
-0.215792
-0.204574
-0.341509
1.021224
1.052208
1.008679
1.010887
1.177220
1.013350
1.073540
1.011717
1.165327
0.814613
0.441853
-0.304266
1.094920
1.157141
-0.295580
-0.172894
1.033000
1.008679
1.011717
-0.141857
-0.297181
1.017190
1.034685
1.072769
-0.247983
-0.194192
-0.205094
1.005653
0.083038
1.129732
1.111649
-0.262573
1.020709
1.297251
1.296011
1.228540
0.654315
0.267225
-0.058799
-0.327630
-0.348728
-0.432646
1.028853
1.210900
1.397388
-0.556221
-0.282567
1.049415
1.114629
1.069880
-0.377054
0.692740
-0.329765
-0.532117
1.047429
1.070324
1.015306
1.029915
1.012144
1.142774
1.264246
-0.499400
0.138288
1.044458
-0.337151
-0.309506
-0.291506
1.319827
-0.364943
1.251621
1.466258
1.495607
1.013523
0.432889
-0.102314
-0.492696
1.018658
1.284033
-0.767519
1.140910
1.415227
1.266060
0.356096
-0.806991
1.074239
1.244104
-0.390156
-0.449342
-0.858935
1.215393
-0.444558
1.046612
1.790787
1.431815
1.164934
1.101678
-0.725553
-0.519461
1.104539
1.493154
1.018077
-0.619263
-0.523400
1.731181
0.852675
-0.048268
1.026064
1.360711
1.066508
-1.088196
-0.664263
1.647752
1.155753
-0.884561
1.123292
1.596324
1.681975
-0.621057
1.408548
-0.362745
1.041316
-1.286433
-0.538992
-1.204698
1.319302
1.064654
1.641803
1.231621
-1.042279
1.024006
-0.668369
-0.720907
1.512536
0.319330
2.131143
1.944411
0.289859
1.200565
-0.898844
-0.801179
-1.238773
-1.500547
-0.656236
1.035447
1.094981
-1.862748
2.219871
1.328582
1.647966
1.943401
1.523501
1.594084
-1.360962
-1.779307
1.942904
1.263398
-0.990888
2.200493
1.351956
2.397967
0.800598
1.914503
-1.325779
-0.423309
1.465893
1.949032
1.152590
-0.658574
-1.720033
-2.177526
-2.601008
1.380654
2.284992
1.473100
1.756200
1.846306
-1.131686
-1.273501
2.931114
2.459809
2.328261
0.166846
-1.633494
2.864053
2.112521
-1.475878
2.769267
-2.669079
2.931886
1.955494
-0.074364
-1.982301
-2.429579
-3.185810
2.126546
-1.730262
-2.429750
2.856988
2.343006
-1.652738
-1.081929
-2.148752
3.634112
2.612942
1.404292
3.890077
3.618062
-3.760993
3.082490
3.007377
1.570067
-3.659071
-3.521239
-2.337904
3.158575
-3.003496
0.486773
3.172708
-3.024361
4.003916
-1.445184
3.013130
4.079978
4.876045
3.860302
-4.548611
-3.020752
-0.837133
2.674512
-5.298630
-3.391586
-5.392589
-3.531880
5.522239
5.422074
5.226657
-1.222475
5.163519
3.998310
-5.019383
-7.672264
6.298021
-4.541737
1.107645
4.755182
-3.753585
-3.979326
4.543935
6.611055
1.641701
7.264061
5.106083
-6.503231
4.074737
-0.598927
-7.655859
7.844073
-3.820975
7.198447
-7.197386
7.406531
4.868811
-6.016534
8.229252
-1.107453
1.946159
9.178522
7.366611
11.487450
-11.027230
-5.454061
9.573460
-9.165610
6.227630
-7.134839
10.264760
-7.324279
2.785677
-3.874806
7.017458
-5.586690
-0.621906
8.997727
-10.790240
6.143427
12.420180
11.047210
-9.578806
10.659250
-8.139427
-10.907640
12.655870
3.490781
-10.069150
0.493829
-5.668828
-15.723270
16.291620
-3.640327
16.349900
-8.946869
-12.004860
-15.093500
-0.281262
10.355720
9.017883
-13.711600
14.716910
16.765470
-12.904760
-14.249340
-18.148460
-14.465820
-6.722425
21.064670
8.034431
22.383150
15.513460
-21.171090
5.512297
15.635100
4.081760
-9.941861
-18.199920
-25.452630
-16.594660
-23.081820
13.054780
-21.802700
15.023970
12.689730
-16.371400
0.697881
23.320410
-0.951761
8.035616
-9.337637
-30.183530
22.459170
23.185910
8.682059
29.132830
-28.078790
22.749990
31.345760
-26.977570
-30.024500
33.030440
2.174563
29.584830
40.725580
-34.930650
19.060320
-36.582370
33.368350
-25.766290
0.005216
0.007403
0.009591
0.012627
0.013476
0.014324
0.012137
0.009101
0.006064
0.120448
0.118547
0.116645
0.111550
0.108356
0.105163
0.107065
0.112160
0.117255
0.912889
0.910096
0.907302
0.908923
0.913337
0.917751
0.920544
0.918924
0.917303
0.961526
0.962647
0.963767
0.966598
0.968308
0.970017
0.968897
0.966066
0.963236
0.269344
0.265937
0.262530
0.255552
0.251980
0.248408
0.251815
0.258794
0.265772
0.007609
0.008025
0.008441
0.006897
0.004938
0.002978
0.002562
0.004106
0.005649
0.552698
0.556021
0.559344
0.554850
0.547033
0.539214
0.535890
0.540385
0.544880
0.131964
0.136052
0.140140
0.138758
0.133289
0.127819
0.123732
0.125113
0.126495
0.983062
0.984947
0.986833
0.987612
0.986505
0.985398
0.983513
0.982734
0.981955
0.109922
0.105106
0.100295
0.097111
0.098731
0.100350
0.894352
0.891320
0.888288
0.883319
0.881380
0.879442
0.882474
0.887444
0.892414
0.195609
0.199109
0.202608
0.199900
0.193694
0.187490
0.183994
0.186699
0.189405
0.994757
0.995191
0.995624
0.994829
0.993601
0.992372
0.991939
0.992734
0.993529
0.305146
0.308743
0.312340
0.308731
0.301524
0.294317
0.290720
0.294330
0.297939
0.917303
0.918924
0.920544
0.917751
0.913337
0.908923
0.907302
0.910096
0.912889
0.753225
0.749109
0.744993
0.738113
0.735349
0.732585
0.736701
0.743581
0.750461
0.147602
0.150977
0.154352
0.152169
0.146614
0.141063
0.137694
0.139871
0.142049
0.805369
0.801543
0.797718
0.791378
0.788863
0.786349
0.790174
0.796514
0.802854
0.327319
0.323525
0.319731
0.308940
0.316331
0.323722
0.418987
0.414761
0.410535
0.402749
0.399188
0.395627
0.399853
0.407639
0.415426
0.165066
0.162619
0.160173
0.150049
0.155870
0.161691
0.787399
0.780904
0.774409
0.771894
0.775874
0.779854
0.054459
0.058314
0.062169
0.064980
0.063935
0.062891
0.059036
0.056225
0.053414
0.675114
0.678097
0.681079
0.676675
0.669287
0.661898
0.658914
0.663320
0.667725
0.007528
0.006260
0.005062
0.003212
0.002481
0.001750
0.614837
0.618006
0.621175
0.616683
0.609019
0.601355
0.598185
0.602679
0.607173
0.017498
0.019822
0.022147
0.022233
0.020024
0.017848
0.015575
0.015441
0.015307
0.170551
0.177738
0.184924
0.185961
0.179811
0.173662
0.166476
0.165439
0.164402
0.068977
0.071930
0.074883
0.073824
0.069822
0.065829
0.858213
0.860303
0.862394
0.858932
0.853380
0.847827
0.845736
0.849198
0.852660
0.839022
0.844722
0.850422
0.840036
0.837798
0.835560
1.000636
1.000329
1.000022
0.999786
0.999858
0.999929
1.000236
1.000471
1.000707
0.252363
0.245603
0.238845
0.235274
0.238462
0.241649
0.998768
0.998503
0.998238
0.997061
0.996148
0.995236
0.995501
0.996678
0.997855
0.999548
0.999023
0.998498
0.999292
0.999553
0.999813
0.994879
0.994694
0.994509
0.992922
0.991521
0.990120
0.990305
0.991891
0.993478
0.583940
0.587190
0.590440
0.585936
0.578180
0.570424
0.567172
0.571678
0.576184
0.989325
0.989931
0.990537
0.989431
0.987718
0.986005
0.919844
0.924006
0.928167
0.929788
0.927246
0.924705
0.527939
0.535084
0.542230
0.541493
0.533610
0.525728
0.518583
0.519320
0.520057
0.203559
0.198571
0.193584
0.202105
0.215614
0.229123
0.234110
0.225589
0.217068
0.697051
0.692721
0.688392
0.679443
0.686755
0.694068
0.836384
0.830494
0.824603
0.822365
0.826017
0.829670
0.097582
0.099045
0.100507
0.097269
0.092569
0.087869
0.086407
0.089644
0.092882
0.426743
0.430273
0.433803
0.429578
0.421823
0.414066
0.733881
0.726885
0.719887
0.717122
0.721355
0.725588
-0.006452
-0.003962
-0.001471
-0.000216
-0.001451
-0.002685
-0.005176
-0.006431
-0.007687
-0.001403
0.000379
0.002161
0.003061
0.002268
0.001573
-0.000056
-0.001099
-0.002142
0.050877
0.050786
0.050695
0.054459
0.058314
0.062169
0.062260
0.058496
0.054732
0.880064
0.874871
0.869678
0.867739
0.870994
0.874249
0.013178
0.011183
0.009188
0.006152
0.005111
0.004070
0.933785
0.935241
0.936697
0.934156
0.930159
0.926162
0.142049
0.139871
0.137694
0.141063
0.146614
0.152169
0.154352
0.150977
0.147602
-0.010232
-0.008573
-0.006914
-0.007149
-0.009042
-0.010936
-0.012595
-0.012360
-0.012125
0.943524
0.939792
0.936060
0.933785
0.935241
0.936697
0.940429
0.942705
0.944980
0.607173
0.602679
0.598185
0.601355
0.609019
0.616683
0.621175
0.618006
0.614837
0.297939
0.294330
0.290720
0.294317
0.301524
0.308731
0.312340
0.308743
0.305146
0.850422
0.844722
0.839022
0.835560
0.837798
0.840036
0.845736
0.849198
0.852660
0.993478
0.991891
0.990305
0.990120
0.991521
0.992922
0.994509
0.994694
0.994879
0.450314
0.445987
0.441660
0.445152
0.452971
0.460788
0.465114
0.461623
0.458132
0.100350
0.098731
0.097111
0.100295
0.105106
0.109922
0.111550
0.108356
0.105163
0.811574
0.813953
0.816333
0.822365
0.826017
0.829670
0.827290
0.821258
0.815226
0.513385
0.508923
0.504462
0.507850
0.515699
0.523548
0.528008
0.524621
0.521233
0.725588
0.721355
0.717122
0.719887
0.726885
0.733881
0.738113
0.735349
0.732585
0.929788
0.927246
0.924705
0.926162
0.930159
0.934156
0.806819
0.799157
0.791496
0.790174
0.796514
0.802854
0.810516
0.811838
0.813159
0.994757
0.995191
0.995624
0.996536
0.997015
0.997494
0.997061
0.996148
0.995236
0.987612
0.986505
0.985398
0.986005
0.987718
0.989431
0.990537
0.989931
0.989325
0.996796
0.997535
0.998274
0.998753
0.998493
0.998233
0.978557
0.976280
0.974004
0.974089
0.976452
0.978814
0.981091
0.981005
0.980920
1.000629
1.000325
1.000020
1.000941
1.000938
1.000936
0.899165
0.900946
0.902727
0.911108
0.906534
0.901959
0.981955
0.982734
0.983513
0.986833
0.984947
0.983062
0.824603
0.830494
0.836384
1.000236
1.000471
1.000707
1.000943
1.000943
1.000943
0.987012
0.985067
0.983122
0.988778
0.988838
0.988897
0.928167
0.924006
0.919844
0.941719
0.945284
0.948849
0.951124
0.949835
0.948545
0.634557
0.626927
0.619297
0.628806
0.633266
0.637727
0.767808
0.773150
0.778492
0.801477
0.788474
0.775470
0.456153
0.455649
0.455145
0.462537
0.470434
0.478330
0.478834
0.471442
0.464049
0.302916
0.303869
0.304823
0.319535
0.333294
0.347052
0.346099
0.331386
0.316674
0.086249
0.089330
0.092411
0.097269
0.092569
0.087869
0.117255
0.112160
0.107065
0.116645
0.118547
0.120448
0.189405
0.186699
0.183994
0.187490
0.193694
0.199900
0.202608
0.199109
0.195609
0.209060
0.212014
0.214967
0.211467
0.205015
0.198562
0.241649
0.238462
0.235274
0.238845
0.245603
0.252363
0.255552
0.251980
0.248408
0.238107
0.231378
0.224649
0.221462
0.225003
0.228545
0.387964
0.383861
0.379758
0.383320
0.390983
0.398647
0.402749
0.399188
0.395627
0.294349
0.287150
0.279950
0.276341
0.279930
0.283520
0.017498
0.019822
0.022147
0.024623
0.024774
0.024925
0.022600
0.020124
0.017649
0.552698
0.556021
0.559344
0.567172
0.571678
0.576184
0.572861
0.565032
0.557203
0.489670
0.493113
0.496557
0.492152
0.484304
0.476455
0.473010
0.477416
0.481821
-0.005255
-0.005255
-0.005255
-0.003941
-0.002627
-0.001314
-0.001314
-0.002627
-0.003941
0.036505
0.036041
0.035576
0.038204
0.041315
0.044443
0.044932
0.042278
0.039624
0.212600
0.219095
0.225590
0.007609
0.008025
0.008441
0.010495
0.012187
0.013927
0.013580
0.011451
0.009322
0.269344
0.265937
0.262530
0.266120
0.273116
0.280113
0.265772
0.258794
0.251815
0.704257
0.707135
0.710012
0.722711
0.715600
0.708490
0.426743
0.430273
0.433803
0.446784
0.438927
0.431070
-25.574718
-25.383145
-25.191572
-21.084409
-17.168819
-13.253228
-13.444800
-17.551963
-21.659127
-28.900272
-32.034255
-35.168238
-34.976665
-31.651110
-28.325555
36.772420
40.176490
43.580560
44.814028
42.643425
40.472822
37.068753
35.835285
34.601817
32.422470
31.476590
30.530710
33.934780
38.284730
42.634680
-0.703487
-3.581537
-6.459587
-9.173830
-9.010023
-8.846216
-5.968166
-3.253923
-0.539680
1.805393
1.436222
1.067052
-1.810998
-4.319878
-6.828757
23.870795
28.681270
33.491745
34.341457
30.380695
26.419933
21.609458
20.759745
19.910032
20.545240
22.030160
23.515080
28.325555
31.651110
34.976665
-33.217685
-31.504720
-29.791755
-30.634647
-33.190505
-35.746362
-37.459328
-36.616435
-35.773542
-31.968443
-29.006235
-26.044027
-24.331063
-25.580305
-26.829548
42.290343
43.855105
45.419868
47.738473
48.492315
49.246158
47.681395
45.362790
43.044185
38.380625
36.035670
33.690715
35.255477
39.165195
43.074913
30.822740
28.277130
25.731520
24.785640
26.385370
27.985100
34.414162
30.526105
26.638047
25.404580
28.059170
30.713760
11.276887
13.871365
16.465842
16.465755
13.871189
11.276624
8.682146
8.682234
8.682322
-34.181170
-31.779970
-29.378770
-28.965840
-30.954110
-32.942380
-35.343580
-35.756510
-36.169440
34.348385
35.666330
36.984275
40.472822
42.643425
44.814028
43.496082
40.007535
36.518988
30.387622
27.744805
25.101987
-30.064258
-30.104015
-30.143773
-34.383805
-38.584080
-42.784355
-42.744598
-38.504565
-34.264533
-27.969050
-25.913600
-23.858150
-23.897908
-25.993115
-28.088323
-24.770293
-22.563015
-20.355738
-19.381800
-20.615140
-21.848480
-24.055757
-25.029695
-26.003633
-26.596335
-26.215100
-25.833865
-23.626587
-21.800545
-19.974502
29.105107
26.864455
24.623803
22.617465
22.851780
23.086095
25.326747
27.333085
29.339422
30.792527
30.239295
29.686062
27.445410
25.757990
24.070570
34.976665
31.651110
28.325555
24.437497
23.874995
23.312493
22.858970
22.967950
23.076930
-37.944145
-40.957640
-43.971135
-44.384065
-41.783500
-39.182935
20.108072
17.756975
15.405877
14.556165
16.057550
17.558935
-34.982660
-33.382950
-31.783240
-29.000805
-27.818080
-26.635355
-28.235065
-31.017500
-33.799935
-27.930420
-25.677310
-23.424200
-22.241475
-23.311860
-24.382245
3.801525
5.428486
7.055447
7.055185
5.428311
3.801437
11.961600
10.868419
9.775239
20.818485
18.886980
16.955475
17.064455
19.104940
21.145425
22.655600
22.125290
21.594980
23.194710
25.324750
27.454790
6.686015
4.689970
2.693926
12.761807
16.841204
20.920602
-39.936777
-43.291185
-46.645592
-49.246158
-48.492315
-47.738473
-44.384065
-41.783500
-39.182935
-21.644798
-21.486895
-21.328992
-20.920602
-16.841204
-12.761807
-25.151943
-22.225095
-19.298248
-18.528550
-20.685700
-22.842850
-25.769697
-26.539395
-27.309093
12.276712
16.517808
20.758904
20.920602
16.841204
12.761807
8.520711
8.359012
8.197314
9.199144
10.362673
11.526202
15.767298
18.844865
21.922432
-23.639452
-21.826275
-20.013098
-18.187055
-18.174190
-18.161325
32.609270
32.188100
31.766930
25.747917
28.175425
30.602932
42.290343
43.855105
45.419868
32.370018
35.155205
37.940393
0.453095
0.208310
-0.036476
-1.891553
-3.501844
-5.112134
-4.867348
-3.012272
-1.157195
1.901485
3.105089
4.308693
4.063907
2.615518
1.167128
-15.895005
-15.418610
-14.942215
-13.086082
-11.706345
-10.326607
-10.803002
-12.659135
-14.515267
-18.049005
-19.726610
-21.404215
-20.927820
-18.773820
-16.619820
20.234925
17.719860
15.204795
13.273290
13.856850
14.440410
13.856908
12.689845
11.522782
11.645155
12.934590
14.224025
15.391088
15.268715
15.146342
13.276585
11.529200
9.781816
8.614753
9.195075
9.775398
7.047152
6.058688
5.070224
6.233753
8.385745
10.537738
7.889619
7.097178
6.304737
-8.683834
-8.030031
-7.376228
-9.190484
-11.658542
-14.126601
-14.780404
-12.966149
-11.151893
-14.764015
-13.156631
-11.549246
-13.706396
-17.470931
-21.235465
-20.500690
-19.198680
-17.896670
-16.008330
-15.422000
-14.835670
-16.137680
-18.026020
-19.914360
-8.604154
-10.485883
-12.367611
-40.472822
-42.643425
-44.814028
37.827393
34.929205
32.031017
-26.830843
-27.895395
-28.959947
-32.093930
-34.163360
-36.232790
-17.077840
-15.955760
-14.833680
-14.820815
-15.930030
-17.039245
-1.623903
-2.296044
-2.968186
-1.709805
0.220716
2.151238
2.823380
1.564999
0.306619
-9.693113
-9.444365
-9.195617
-7.620233
-6.293598
-4.966963
-5.215711
-6.791094
-8.366477
27.115790
25.098750
23.081710
21.394290
21.723910
22.053530
49.246158
48.492315
47.738473
20.860267
19.337385
17.814503
18.048818
19.806015
21.563212
19.989870
18.915070
17.840270
18.169890
19.574310
20.978730
11.169159
9.283538
7.397918
-16.876130
-15.552340
-14.228550
-13.106470
-13.308180
-13.509890
-18.942712
-19.685505
-20.428297
-19.651692
-18.132295
-16.612898
-15.870105
-16.646710
-17.423315
17.431573
19.349685
21.267798
29.471830
29.358830
29.245830
5.069928
6.058096
7.046263
9.198256
10.362081
11.525905
16.661577
16.557685
16.453793
17.858213
19.366525
20.874838
7.561680
7.088929
6.616178
7.196500
8.249574
9.302647
6.149280
4.264130
2.378979
1.906228
3.318628
4.731027
16.335330
16.320760
16.306190
15.799230
15.963360
16.127490
14.980518
13.669415
12.358313
12.194183
13.341155
14.488127
-4.341204
0.000000
4.341204
-26.667040
-23.309580
-19.952120
-9.626998
-9.312135
-8.997272
-12.761807
-16.841204
-20.920602
-15.386480
-16.307140
-17.227800
-16.612560
-15.076660
-13.540760
-12.620100
-13.235340
-13.850580
-13.284915
-12.858230
-12.431545
-13.384565
-12.519790
-11.655015
-12.023498
-13.256755
-14.490012
-15.354788
-14.986305
-14.617822
-12.104212
-9.959084
-7.813956
-6.949181
-8.229534
-9.509887
-13.451945
-13.999130
-14.546315
-14.047035
-13.000570
-11.954105
-11.406920
-11.906200
-12.405480
15.738070
14.710670
13.683270
12.596948
12.538025
12.479102
13.506502
14.592825
15.679148
16.253330
15.741190
15.229050
14.201650
13.686390
13.171130
13.603873
12.490835
11.377797
10.862538
11.460315
12.058093
0.319731
0.323525
0.327319
0.323722
0.316331
0.308940
13.702495
12.688080
11.673665
10.560628
10.462005
10.363383
0.002978
0.004938
0.006897
0.005649
0.004106
0.002562
0.024925
0.024774
0.024623
0.017649
0.020124
0.022600
0.999929
0.999858
0.999786
1.000022
1.000329
1.000636
-11.969972
-11.035185
-10.100397
-9.391495
-9.617380
-9.843265
-10.778053
-11.486955
-12.195857
0.996815
0.994195
0.991576
0.990484
0.992011
0.993538
0.996157
0.997249
0.998341
-10.979762
-11.890375
-12.800988
0.323327
0.330715
0.338103
0.341897
0.338302
0.334707
22.674480
22.889790
23.105100
21.399082
19.477755
17.556427
17.341117
19.047135
20.753152
-2.884423
-4.817085
-6.749747
-7.694336
-5.446811
-3.199286
0.033996
0.031023
0.028049
0.027585
0.030094
0.032603
3.184777
2.287794
1.390812
0.645447
0.644360
0.643274
0.649673
0.657159
0.664645
0.665731
0.659332
0.652933
-0.366423
-0.451584
-0.536745
-1.883637
-3.145367
-4.407097
-4.321937
-2.975045
-1.628153
-0.003694
-0.002134
-0.000574
0.000560
0.000251
0.000063
0.661749
1.604760
2.547770
2.462609
1.434438
0.406266
0.999753
0.999507
0.999260
0.999189
0.999364
0.999540
-12.884222
-11.302623
-9.721025
-8.341287
-8.543148
-8.745008
-10.787355
-9.569850
-8.352344
-7.385986
-7.637133
-7.888280
-9.105785
-10.072143
-11.038502
0.027585
0.030094
0.032603
0.032418
0.029745
0.027095
-11.398347
-10.791833
-10.185320
-8.967814
-8.356822
-7.745831
-0.004737
-0.004220
-0.003703
-0.007149
-0.009042
-0.010936
-47.738473
-48.492315
-49.246158
0.214967
0.212014
0.209060
0.198562
0.205015
0.211467
13.699860
14.344940
14.990020
13.980796
12.326491
10.672187
10.027107
11.036331
12.045556
14.299907
13.086355
11.872803
14.916048
15.115185
15.314322
0.944980
0.942705
0.940429
0.936060
0.939792
0.943524
4.341204
0.000000
-4.341204
1.456781
3.865324
6.273866
0.997494
0.997015
0.996536
10.539878
10.032546
9.525215
5.006918
4.501539
3.996160
-19.809135
-18.447180
-17.085225
-15.565827
-15.408385
-15.250943
-10.849488
-10.908735
-10.967982
-12.201240
-13.375250
-14.549260
0.081836
0.080502
0.079169
0.070310
0.074596
0.078883
0.136749
0.145621
0.154493
0.158581
0.153796
0.149012
0.036505
0.036041
0.035576
0.028049
0.031023
0.033996
0.023667
0.024137
0.024606
0.021751
0.018427
0.015103
0.014633
0.017488
0.020343
0.000063
0.000251
0.000560
-0.000574
-0.002134
-0.003694
0.046957
0.054543
0.062128
0.069194
0.068673
0.068153
0.060568
0.053502
0.046437
0.494869
0.503510
0.512152
0.504759
0.488725
0.472691
0.750461
0.743581
0.736701
0.744993
0.749109
0.753225
0.039624
0.042278
0.044932
0.044443
0.041315
0.038204
0.058263
0.054691
0.051132
0.048341
0.049095
0.049849
0.963236
0.966066
0.968897
0.970017
0.968308
0.966598
0.963767
0.962647
0.961526
0.996057
0.997049
0.998040
0.400561
0.408111
0.415662
0.392302
0.392538
0.392774
0.364908
0.368490
0.372073
0.368115
0.360574
0.353033
0.349450
0.353409
0.357367
0.387964
0.383861
0.379758
0.369011
0.376696
0.384381
0.958407
0.956409
0.954411
0.951124
0.949835
0.948545
0.950543
0.953831
0.957118
0.398647
0.390983
0.383320
0.637727
0.633266
0.628806
0.619297
0.626927
0.634557
0.973281
0.975798
0.978316
0.978557
0.976280
0.974004
0.971486
0.971245
0.971004
0.935960
0.934749
0.933539
0.921055
0.926427
0.931798
0.819191
0.823901
0.828612
0.827290
0.821258
0.815226
0.810516
0.811838
0.813159
0.645447
0.644360
0.643274
0.620384
0.629100
0.637817
0.450314
0.445987
0.441660
0.431070
0.438927
0.446784
0.861468
0.866813
0.872159
0.458132
0.461623
0.465114
0.460788
0.452971
0.445152
0.521233
0.524621
0.528008
0.523548
0.515699
0.507850
0.504462
0.508923
0.513385
0.385089
0.377168
0.369247
0.353711
0.346096
0.338481
0.346403
0.361939
0.377474
0.462537
0.470434
0.478330
0.276341
0.279930
0.283520
0.280113
0.273116
0.266120
0.279950
0.287150
0.294349
0.851946
0.855103
0.858260
0.849683
0.837949
0.826215
0.823058
0.831635
0.840212
0.494132
0.502036
0.509941
0.221462
0.225003
0.228545
0.225590
0.219095
0.212600
0.224649
0.231378
0.238107
0.896275
0.890018
0.883761
0.873483
0.869461
0.865439
0.871696
0.881974
0.892253
0.170956
0.174400
0.177844
0.175394
0.169502
0.163613
0.278869
0.286429
0.293989
0.272390
0.272030
0.271669
0.557203
0.565032
0.572861
0.125641
0.128933
0.132224
0.130316
0.125120
0.119930
0.999289
0.997881
0.996473
0.996157
0.997249
0.998341
0.999749
1.000065
1.000381
0.588434
0.596178
0.603923
0.009322
0.011451
0.013580
0.013927
0.012187
0.010495
-0.006452
-0.003962
-0.001471
-0.000032
-0.001083
-0.002134
-0.004624
-0.006064
-0.007503
0.039764
0.043377
0.046990
0.047195
0.043787
0.040378
0.036765
0.036560
0.036355
0.102677
0.109235
0.115792
0.104059
0.111998
0.119938
0.215772
0.216488
0.217204
0.197847
0.203583
0.209320
0.092411
0.089330
0.086249
0.091066
0.086649
0.082238
0.286198
0.301088
0.315977
0.323537
0.316208
0.308878
0.033527
0.030084
0.026641
0.026436
0.029674
0.032912
0.912395
0.909107
0.905820
0.911191
0.919851
0.928510
0.583482
0.582551
0.581620
0.558134
0.566894
0.575654
0.251455
0.258073
0.264691
0.604854
0.598040
0.591227
0.599943
0.615473
0.631003
0.353772
0.346219
0.338666
0.331051
0.330990
0.330928
0.512152
0.503510
0.494869
0.478834
0.471442
0.464049
0.472691
0.488725
0.504759
0.455145
0.455649
0.456153
0.176288
0.189211
0.202134
0.860093
0.858770
0.857446
0.840346
0.847370
0.854393
0.911108
0.906534
0.901959
0.898671
0.899958
0.901245
0.979765
0.978352
0.976940
0.974578
0.973628
0.972677
0.974089
0.976452
0.978814
0.806819
0.799157
0.791496
0.778492
0.773150
0.767808
0.775470
0.788474
0.801477
0.697677
0.689162
0.680646
0.665731
0.659332
0.652933
0.661448
0.676363
0.691278
0.982101
0.979910
0.977719
0.972869
0.970209
0.967548
0.961770
0.958651
0.955533
0.948849
0.945284
0.941719
0.431574
0.439935
0.448295
0.664645
0.657159
0.649673
0.998409
0.998844
0.999280
0.998753
0.998493
0.998233
0.998274
0.997535
0.996796
0.844952
0.846761
0.848570
0.857214
0.864050
0.870886
0.869078
0.860433
0.851788
1.000936
1.000938
1.000941
1.000020
1.000325
1.000629
0.754305
0.746144
0.737982
0.723914
0.718007
0.712100
0.720261
0.734330
0.748398
0.969992
0.966259
0.962526
0.958766
0.958740
0.958713
0.962446
0.966206
0.969965
0.651428
0.648348
0.645268
0.646969
0.639428
0.631887
0.763965
0.770588
0.777211
0.765270
0.762627
0.759984
0.761155
0.754396
0.747637
-0.009714
-0.007538
-0.005361
-0.004624
-0.006064
-0.007503
-0.009679
-0.010416
-0.011153
0.015307
0.015441
0.015575
0.017848
0.020024
0.022233
-0.014458
-0.010945
-0.007433
-0.006043
-0.008165
-0.010287
-0.013800
-0.015190
-0.016580
0.708490
0.715600
0.722711
0.710012
0.707135
0.704257
0.705684
0.698477
0.691270
0.039764
0.043377
0.046990
0.047264
0.043559
0.039855
0.149360
0.147649
0.145938
0.150049
0.155870
0.161691
0.163402
0.159292
0.155182
0.536699
0.552604
0.568509
0.013178
0.011183
0.009188
0.027095
0.029745
0.032418
0.967548
0.970209
0.972869
0.974578
0.973628
0.972677
0.858470
0.866562
0.874653
0.881489
0.880234
0.878978
0.583940
0.587190
0.590440
0.603923
0.596178
0.588434
0.364908
0.368490
0.372073
0.384381
0.376696
0.369011
0.049849
0.049095
0.048341
0.051132
0.054691
0.058263
0.059036
0.056225
0.053414
0.047195
0.043787
0.040378
0.993529
0.992734
0.991939
0.992372
0.993601
0.994829
0.170956
0.174400
0.177844
0.185961
0.179811
0.173662
0.119930
0.125120
0.130316
0.132224
0.128933
0.125641
0.236454
0.230276
0.224098
0.244285
0.243734
0.243183
0.138758
0.133289
0.127819
0.570424
0.578180
0.585936
0.489670
0.493113
0.496557
0.509941
0.502036
0.494132
0.195927
0.203258
0.210589
0.102677
0.109235
0.115792
0.123732
0.125113
0.126495
0.119938
0.111998
0.104059
0.667725
0.663320
0.658914
0.661898
0.669287
0.676675
0.681079
0.678097
0.675114
0.631887
0.639428
0.646969
0.651428
0.648348
0.645268
0.527939
0.535084
0.542230
0.558134
0.566894
0.575654
0.568509
0.552604
0.536699
0.779854
0.775874
0.771894
0.774409
0.780904
0.787399
0.791378
0.788863
0.786349
0.747637
0.754396
0.761155
0.765270
0.762627
0.759984
0.518583
0.519320
0.520057
0.777211
0.770588
0.763965
0.874249
0.870994
0.867739
0.869678
0.874871
0.880064
0.883319
0.881380
0.879442
0.847827
0.853380
0.858932
0.862394
0.860303
0.858213
0.697677
0.689162
0.680646
0.679443
0.686755
0.694068
0.702583
0.703786
0.704990
0.872159
0.866813
0.861468
0.999548
0.999023
0.998498
0.998409
0.998844
0.999280
0.999805
0.999894
0.999984
0.944088
0.944383
0.944679
0.950129
0.955283
0.960438
0.960143